 128  128
1 1
    27.774189308435179    -0.000000000000001    -0.000000000000000
     0.000000000000004    27.774189308435187     0.000000000000002
    -0.000000000000003     0.000000000000001    32.411418448182985
1 2
    -1.093620220709958     2.384708707803707     0.000000000000000
     1.553993835402230    -3.367656083988804     0.000000000000000
     0.000000000000000    -0.000000000000000     0.347641880389415
1 3
     0.078313501496450     0.001168774332078    -0.000000000000000
     0.001168774332150     0.076963917145914     0.000000000000000
    -0.000000000000000     0.000000000000000     0.018479768203827
1 4
    -1.093638887974635     1.554004612856621     0.000000000000000
     2.384719485501152    -3.367637416724127     0.000000000000000
     0.000000000000000    -0.000000000000000     0.347641880389415
1 5
    -1.093638887974635    -1.554004612856621     0.000000000000000
    -2.384719485501153    -3.367637416724127     0.000000000000000
     0.000000000000000     0.000000000000000     0.347641880389415
1 6
    -4.504655348363549    -0.415368213798972    -0.000000000000000
     0.415346658724030     0.043379043664788     0.000000000000000
     0.000000000000001     0.000000000000000     0.347641880389415
1 7
    -0.121650874155601     0.034112771911532     0.000000000000000
     0.034112771913637    -0.082260838062531    -0.000000000000000
     0.000000000000000    -0.000000000000000    -0.001359584175881
1 8
    -0.062565820015996     0.000000000000000    -0.000000000000000
    -0.000000000000000    -0.141345892202136    -0.000000000000000
     0.000000000000000    -0.000000000000000    -0.001359584175881
1 9
     0.078313501496450    -0.001168774332078    -0.000000000000000
    -0.001168774332150     0.076963917145914     0.000000000000000
    -0.000000000000000     0.000000000000000     0.018479768203827
1 10
    -0.121655782506568    -0.034117445015316     0.000000000000000
    -0.034117445017422    -0.082260350378043    -0.000000000000000
     0.000000000000000     0.000000000000000    -0.001342328988676
1 11
     0.076289124970646     0.000000000000000     0.000000000000000
     0.000000000000000     0.078988293671718     0.000000000000000
    -0.000000000000000     0.000000000000000     0.018479768203827
1 12
    -0.121650874155601    -0.034112771911532    -0.000000000000000
    -0.034112771913637    -0.082260838062531    -0.000000000000000
     0.000000000000000     0.000000000000000    -0.001359584175881
1 13
    -1.093620220709957    -2.384708707803707     0.000000000000000
    -1.553993835402230    -3.367656083988805     0.000000000000000
     0.000000000000000     0.000000000000000     0.347641880389415
1 14
    -0.062562634313780     0.000000000000000    -0.000000000000000
    -0.000000000000000    -0.141353498570832     0.000000000000000
     0.000000000000000    -0.000000000000000    -0.001342328988676
1 15
    -0.121655782506568     0.034117445015316    -0.000000000000000
     0.034117445017422    -0.082260350378043    -0.000000000000000
     0.000000000000000    -0.000000000000000    -0.001342328988676
1 16
    -4.504655348363549     0.415368213798972     0.000000000000000
    -0.415346658724031     0.043379043664788     0.000000000000000
     0.000000000000001    -0.000000000000000     0.347641880389415
1 17
     0.566274410632331    -0.000000000000000    -0.000000000000000
     0.000000000000000     0.566274410632331    -0.000000000000000
    -0.000000000000000     0.000000000000000    -5.682209128461469
1 18
    -0.001230467356442     0.464113894465124    -0.317946395799171
     0.200966765799656    -0.385202434326133     0.290190381624059
    -0.092352250041137     0.420457261745956    -0.604948043896894
1 19
     0.045674391242594     0.023445230428482     0.005205412970416
     0.023445230429929     0.018602171043564     0.003005346579805
    -0.005206312641402    -0.003005866004906     0.029127476355359
1 20
    -0.001221068902681     0.200961339587446     0.092339044512996
     0.464108468293955    -0.385211832779894    -0.420444846624309
     0.317950544868307    -0.290208025502788    -0.604948043896894
1 21
    -0.001221068902681    -0.200961339587446    -0.092339044512996
    -0.464108468293955    -0.385211832779894    -0.420444846624309
    -0.317950544868307    -0.290208025502788    -0.604948043896895
1 22
    -0.577197816264740    -0.131568138139127    -0.410285440312167
     0.131578990546863     0.190764914582164     0.130254465000250
    -0.410302794909444    -0.130249236243168    -0.604948043896894
1 23
     0.013783500723953    -0.012914897181382     0.038571293028655
    -0.012914897182179    -0.001129338004962    -0.022269146413773
     0.009455689625475    -0.005459244950473     0.042043989619714
1 24
    -0.008585757369419    -0.000000000000000    -0.000000000000000
    -0.000000000000000     0.021239920088410     0.044538292827546
     0.000000000000000     0.010918489900946     0.042043989619714
1 25
     0.045674391242594    -0.023445230428482    -0.005205412970416
    -0.023445230429929     0.018602171043564     0.003005346579805
     0.005206312641402    -0.003005866004906     0.029127476355359
1 26
     0.013765715103631     0.012905373545273     0.009429307220878
     0.012905373546070    -0.001136126677541     0.005444013062414
     0.038566477995512     0.022266366451717     0.042031387009164
1 27
     0.005066060944049    -0.000000000000000    -0.000000000000000
     0.000000000000000     0.059210501342108    -0.006010693159611
    -0.000000000000000     0.006011732009812     0.029127476355359
1 28
     0.013783500723953     0.012914897181382    -0.038571293028655
     0.012914897182179    -0.001129338004962    -0.022269146413773
    -0.009455689625475    -0.005459244950473     0.042043989619714
1 29
    -0.001230467356442    -0.464113894465124     0.317946395799171
    -0.200966765799656    -0.385202434326134     0.290190381624059
     0.092352250041137     0.420457261745956    -0.604948043896895
1 30
    -0.008587047568127    -0.000000000000000     0.000000000000000
    -0.000000000000000     0.021216635994217    -0.010888026124827
     0.000000000000000    -0.044532732903435     0.042031387009164
1 31
     0.013765715103631    -0.012905373545273    -0.009429307220878
    -0.012905373546070    -0.001136126677541     0.005444013062414
    -0.038566477995512     0.022266366451717     0.042031387009164
1 32
    -0.577197816264739     0.131568138139127     0.410285440312167
    -0.131578990546863     0.190764914582164     0.130254465000251
     0.410302794909444    -0.130249236243168    -0.604948043896895
1 33
     0.062270287177590    -0.000000000000000    -0.000000000000000
     0.000000000000000     0.062270287177590    -0.000000000000000
    -0.000000000000000     0.000000000000000    -0.233166810393062
1 34
     0.019446771049001     0.000866230527491     0.000000000000000
     0.008103537196993     0.014269233315402    -0.000000000000000
    -0.000000000000000     0.000000000000000    -0.067286740396090
1 35
    -0.005631664402208     0.020407843125684    -0.000000000000000
     0.020407843126944    -0.029196611847323    -0.000000000000000
     0.000000000000000    -0.000000000000000    -0.040568190878367
1 36
     0.019447641106430     0.008103034868602    -0.000000000000000
     0.000865728199654     0.014268363257973    -0.000000000000000
    -0.000000000000000    -0.000000000000000    -0.067286740396090
1 37
     0.019447641106430    -0.008103034868602     0.000000000000000
    -0.000865728199654     0.014268363257973    -0.000000000000000
    -0.000000000000000     0.000000000000000    -0.067286740396090
1 38
     0.011679594391174     0.003619155662392    -0.000000000000000
    -0.003618151006833     0.022036409973229    -0.000000000000000
    -0.000000000000000    -0.000000000000000    -0.067286740396090
1 39
    -0.029703990744678     0.019437892672948     0.000000000000000
     0.019437892674147    -0.007259045609575    -0.000000000000000
     0.000000000000000    -0.000000000000000    -0.060883290023301
1 40
     0.003963426957977     0.000000000000000    -0.000000000000000
     0.000000000000000    -0.040926463312230    -0.000000000000000
    -0.000000000000000    -0.000000000000000    -0.060883290023301
1 41
    -0.005631664402208    -0.020407843125684     0.000000000000000
    -0.020407843126944    -0.029196611847323    -0.000000000000000
     0.000000000000000     0.000000000000000    -0.040568190878367
1 42
    -0.029704599598599    -0.019438136549398    -0.000000000000000
    -0.019438136550597    -0.007259372859228    -0.000000000000000
     0.000000000000000     0.000000000000000    -0.060884279022733
1 43
    -0.040979085569880    -0.000000000000000    -0.000000000000000
    -0.000000000000000     0.006150809320349    -0.000000000000000
     0.000000000000000     0.000000000000000    -0.040568190878367
1 44
    -0.029703990744678    -0.019437892672948    -0.000000000000000
    -0.019437892674147    -0.007259045609575    -0.000000000000000
     0.000000000000000     0.000000000000000    -0.060883290023301
1 45
     0.019446771049001    -0.000866230527491    -0.000000000000000
    -0.008103537196993     0.014269233315402    -0.000000000000000
    -0.000000000000000     0.000000000000000    -0.067286740396090
1 46
     0.003963240510458     0.000000000000000     0.000000000000000
     0.000000000000000    -0.040927212968285    -0.000000000000000
    -0.000000000000000    -0.000000000000000    -0.060884279022733
1 47
    -0.029704599598599     0.019438136549398    -0.000000000000000
     0.019438136550597    -0.007259372859228    -0.000000000000000
     0.000000000000000    -0.000000000000000    -0.060884279022733
1 48
     0.011679594391174    -0.003619155662392    -0.000000000000000
     0.003618151006833     0.022036409973229    -0.000000000000000
    -0.000000000000000     0.000000000000000    -0.067286740396090
1 49
     0.566274410632331    -0.000000000000000    -0.000000000000000
     0.000000000000000     0.566274410632331    -0.000000000000000
    -0.000000000000000     0.000000000000000    -5.682209128461469
1 50
    -0.001230467356442     0.464113894465124     0.317946395799171
     0.200966765799656    -0.385202434326134    -0.290190381624059
     0.092352250041137    -0.420457261745956    -0.604948043896894
1 51
     0.045674391242594     0.023445230428482    -0.005205412970416
     0.023445230429929     0.018602171043564    -0.003005346579805
     0.005206312641402     0.003005866004906     0.029127476355359
1 52
    -0.001221068902682     0.200961339587446    -0.092339044512996
     0.464108468293955    -0.385211832779894     0.420444846624309
    -0.317950544868307     0.290208025502788    -0.604948043896895
1 53
    -0.001221068902681    -0.200961339587446     0.092339044512996
    -0.464108468293955    -0.385211832779894     0.420444846624309
     0.317950544868307     0.290208025502788    -0.604948043896895
1 54
    -0.577197816264740    -0.131568138139127     0.410285440312167
     0.131578990546863     0.190764914582164    -0.130254465000250
     0.410302794909445     0.130249236243168    -0.604948043896895
1 55
     0.013783500723953    -0.012914897181382    -0.038571293028655
    -0.012914897182179    -0.001129338004962     0.022269146413773
    -0.009455689625475     0.005459244950473     0.042043989619714
1 56
    -0.008585757369419    -0.000000000000000     0.000000000000000
    -0.000000000000000     0.021239920088410    -0.044538292827546
     0.000000000000000    -0.010918489900946     0.042043989619714
1 57
     0.045674391242594    -0.023445230428482     0.005205412970416
    -0.023445230429929     0.018602171043564    -0.003005346579805
    -0.005206312641402     0.003005866004906     0.029127476355359
1 58
     0.013765715103631     0.012905373545273    -0.009429307220878
     0.012905373546070    -0.001136126677541    -0.005444013062414
    -0.038566477995512    -0.022266366451717     0.042031387009164
1 59
     0.005066060944049    -0.000000000000000    -0.000000000000000
     0.000000000000000     0.059210501342108     0.006010693159611
    -0.000000000000000    -0.006011732009812     0.029127476355359
1 60
     0.013783500723953     0.012914897181382     0.038571293028655
     0.012914897182179    -0.001129338004962     0.022269146413773
     0.009455689625475     0.005459244950473     0.042043989619714
1 61
    -0.001230467356442    -0.464113894465124    -0.317946395799171
    -0.200966765799656    -0.385202434326134    -0.290190381624059
    -0.092352250041137    -0.420457261745956    -0.604948043896894
1 62
    -0.008587047568127    -0.000000000000000     0.000000000000000
    -0.000000000000000     0.021216635994218     0.010888026124827
     0.000000000000000     0.044532732903435     0.042031387009164
1 63
     0.013765715103631    -0.012905373545273     0.009429307220878
    -0.012905373546070    -0.001136126677541    -0.005444013062414
     0.038566477995512    -0.022266366451717     0.042031387009164
1 64
    -0.577197816264740     0.131568138139127    -0.410285440312167
    -0.131578990546863     0.190764914582164    -0.130254465000251
    -0.410302794909444     0.130249236243168    -0.604948043896895
1 65
    -2.291651967834460     0.458786683088708     1.024852602287466
     0.458786683117019    -1.761890737854352    -0.591698925828614
     1.281802178214067    -0.740048832616907    -2.555947325608378
1 66
    -0.082549478253019    -0.009001201837414     0.057963202521845
     0.067138507901087     0.043233633256661    -0.166106413672031
    -0.062600650646562     0.038017018431258    -0.045541651489509
1 67
     0.036962047357590    -0.001861503583475    -0.114870772706144
    -0.078001213322647    -0.076277892353948     0.133250812706185
     0.001623378415346    -0.073222262967314    -0.045541651489508
1 68
    -1.497010122864298     0.000000000000000    -0.000000000000000
    -0.000000000000000    -2.556532582824514     1.183397851657227
     0.000000000000000     1.480097665233813    -2.555947325608378
1 69
    -0.251466864562457    -0.245177165602609     0.350046164912555
    -0.245177165617739     0.031639340565910     0.202099247547295
    -0.015405674822407    -0.008894470505490    -0.119237860652768
1 70
    -0.013386336599107     0.107069866347598     0.172833975227990
     0.030930156615148    -0.025929508397251     0.032855600965846
    -0.064224029061908     0.035205244536055    -0.045541651489509
1 71
     0.041443180007946    -0.000000000000000    -0.000000000000000
     0.000000000000000     0.041443180007946    -0.000000000000000
    -0.000000000000000     0.000000000000000    -0.026046707463679
1 72
     0.036962047357590     0.001861503583475     0.114870772706144
     0.078001213322647    -0.076277892353948     0.133250812706185
    -0.001623378415346    -0.073222262967314    -0.045541651489509
1 73
     0.010285412617323     0.036894362139896     0.017717819572134
     0.036894362142172     0.052887352444734    -0.010229387899740
    -0.035986927975281     0.020777062553195     0.000085424825938
1 74
     0.074188322358439    -0.000000000000000    -0.000000000000000
     0.000000000000000    -0.011015557296382     0.020458775799481
    -0.000000000000000    -0.041554125106390     0.000085424825938
1 75
    -0.013386336599107    -0.107069866347598    -0.172833975227990
    -0.030930156615148    -0.025929508397251     0.032855600965846
     0.064224029061908     0.035205244536055    -0.045541651489508
1 76
    -0.082549478253019     0.009001201837414    -0.057963202521845
    -0.067138507901087     0.043233633256661    -0.166106413672031
     0.062600650646562     0.038017018431258    -0.045541651489508
1 77
     0.173192443130093     0.000000000000000     0.000000000000000
     0.000000000000000    -0.393019967126641    -0.404198495094591
    -0.000000000000000     0.017788941010980    -0.119237860652768
1 78
     0.010285412617323    -0.036894362139896    -0.017717819572134
    -0.036894362142172     0.052887352444734    -0.010229387899740
     0.035986927975281     0.020777062553195     0.000085424825938
1 79
    -0.251466864562457     0.245177165602609    -0.350046164912555
     0.245177165617739     0.031639340565910     0.202099247547295
     0.015405674822407    -0.008894470505490    -0.119237860652768
1 80
    -2.291651967834460    -0.458786683088708    -1.024852602287466
    -0.458786683117020    -1.761890737854352    -0.591698925828614
    -1.281802178214067    -0.740048832616907    -2.555947325608379
1 81
    -2.291651967834460     0.458786683088708    -1.024852602287466
     0.458786683117019    -1.761890737854352     0.591698925828613
    -1.281802178214067     0.740048832616906    -2.555947325608378
1 82
    -0.082549478253019    -0.009001201837414    -0.057963202521845
     0.067138507901087     0.043233633256661     0.166106413672031
     0.062600650646562    -0.038017018431258    -0.045541651489508
1 83
     0.036962047357590    -0.001861503583475     0.114870772706144
    -0.078001213322647    -0.076277892353948    -0.133250812706185
    -0.001623378415346     0.073222262967314    -0.045541651489509
1 84
    -1.497010122864298     0.000000000000000    -0.000000000000000
    -0.000000000000000    -2.556532582824514    -1.183397851657227
     0.000000000000000    -1.480097665233813    -2.555947325608378
1 85
    -0.251466864562457    -0.245177165602609    -0.350046164912555
    -0.245177165617739     0.031639340565910    -0.202099247547295
     0.015405674822407     0.008894470505490    -0.119237860652768
1 86
    -0.013386336599107     0.107069866347598    -0.172833975227990
     0.030930156615148    -0.025929508397251    -0.032855600965846
     0.064224029061908    -0.035205244536055    -0.045541651489508
1 87
     0.041443180007946    -0.000000000000000    -0.000000000000000
     0.000000000000000     0.041443180007946    -0.000000000000000
    -0.000000000000000     0.000000000000000    -0.026046707463679
1 88
     0.036962047357590     0.001861503583475    -0.114870772706144
     0.078001213322647    -0.076277892353948    -0.133250812706185
     0.001623378415346     0.073222262967314    -0.045541651489508
1 89
     0.010285412617323     0.036894362139896    -0.017717819572134
     0.036894362142172     0.052887352444734     0.010229387899740
     0.035986927975281    -0.020777062553195     0.000085424825938
1 90
     0.074188322358439     0.000000000000000     0.000000000000000
     0.000000000000000    -0.011015557296382    -0.020458775799481
    -0.000000000000000     0.041554125106390     0.000085424825938
1 91
    -0.013386336599107    -0.107069866347598     0.172833975227990
    -0.030930156615148    -0.025929508397251    -0.032855600965846
    -0.064224029061908    -0.035205244536055    -0.045541651489509
1 92
    -0.082549478253019     0.009001201837414     0.057963202521845
    -0.067138507901087     0.043233633256661     0.166106413672031
    -0.062600650646562    -0.038017018431258    -0.045541651489509
1 93
     0.173192443130093     0.000000000000000    -0.000000000000000
     0.000000000000000    -0.393019967126641     0.404198495094591
    -0.000000000000000    -0.017788941010980    -0.119237860652768
1 94
     0.010285412617323    -0.036894362139896     0.017717819572134
    -0.036894362142172     0.052887352444734     0.010229387899740
    -0.035986927975281    -0.020777062553195     0.000085424825938
1 95
    -0.251466864562457     0.245177165602609     0.350046164912555
     0.245177165617739     0.031639340565910    -0.202099247547295
    -0.015405674822407     0.008894470505490    -0.119237860652768
1 96
    -2.291651967834460    -0.458786683088708     1.024852602287466
    -0.458786683117020    -1.761890737854353     0.591698925828613
     1.281802178214067     0.740048832616907    -2.555947325608379
1 97
    -0.056634315404902     0.003714292040443    -0.047428551612590
     0.003714292040672    -0.052345420385973     0.027382887041648
    -0.146175122190495     0.084394246142905     0.047975478052026
1 98
     0.016646779515632    -0.014881160510984     0.017479660833956
    -0.024500427882995     0.016934964803462    -0.000297598385753
     0.019125658459468     0.005146067600876     0.036142481421385
1 99
    -0.000189809513651    -0.014779818673491     0.008482102654799
    -0.005160551303310     0.033771553832745     0.015286629525085
     0.014019454501822     0.013990272289055     0.036142481421385
1 100
    -0.050200972876508    -0.000000000000000     0.000000000000000
    -0.000000000000000    -0.058778762914367    -0.054765774083295
     0.000000000000000    -0.168788492285809     0.047975478052026
1 101
    -0.013234538906064     0.043314693622852     0.023119949963508
     0.043314693625525    -0.063250038953646     0.013348309335494
    -0.010148660373952    -0.005859331798634     0.067957479335384
1 102
     0.033915646476660    -0.014530242893242     0.008997558179157
    -0.004910975523045    -0.000333902157566    -0.014989031139333
     0.005106203957646    -0.019136339889931     0.036142481421385
1 103
     0.027671727893441    -0.000000000000000     0.000000000000000
     0.000000000000000     0.027671727893441     0.000000000000000
    -0.000000000000000     0.000000000000000     0.023694840662983
1 104
    -0.000189809513651     0.014779818673491    -0.008482102654799
     0.005160551303310     0.033771553832745     0.015286629525085
    -0.014019454501822     0.013990272289055     0.036142481421385
1 105
    -0.004378153208844     0.004323375123174    -0.006386972550015
     0.004323375123440     0.000614050373654     0.003687520321171
    -0.003406244956151     0.001966596442299    -0.000606087856233
1 106
     0.003110152164903     0.000000000000000     0.000000000000000
     0.000000000000000    -0.006874255000093    -0.007375040642343
    -0.000000000000000    -0.003933192884598    -0.000606087856233
1 107
     0.033915646476660     0.014530242893242    -0.008997558179157
     0.004910975523045    -0.000333902157566    -0.014989031139333
    -0.005106203957646    -0.019136339889931     0.036142481421385
1 108
     0.016646779515632     0.014881160510984    -0.017479660833956
     0.024500427882995     0.016934964803462    -0.000297598385753
    -0.019125658459468     0.005146067600876     0.036142481421385
1 109
    -0.088257788977437    -0.000000000000000     0.000000000000000
    -0.000000000000000     0.011773211117727    -0.026696618670987
     0.000000000000000     0.011718663597269     0.067957479335384
1 110
    -0.004378153208844    -0.004323375123174     0.006386972550015
    -0.004323375123440     0.000614050373654     0.003687520321171
     0.003406244956151     0.001966596442299    -0.000606087856233
1 111
    -0.013234538906064    -0.043314693622852    -0.023119949963508
    -0.043314693625525    -0.063250038953646     0.013348309335494
     0.010148660373952    -0.005859331798634     0.067957479335384
1 112
    -0.056634315404902    -0.003714292040443     0.047428551612590
    -0.003714292040672    -0.052345420385973     0.027382887041648
     0.146175122190495     0.084394246142905     0.047975478052026
1 113
    -0.056634315404902     0.003714292040443     0.047428551612590
     0.003714292040672    -0.052345420385973    -0.027382887041648
     0.146175122190495    -0.084394246142905     0.047975478052026
1 114
     0.016646779515632    -0.014881160510984    -0.017479660833956
    -0.024500427882995     0.016934964803462     0.000297598385753
    -0.019125658459468    -0.005146067600876     0.036142481421385
1 115
    -0.000189809513651    -0.014779818673491    -0.008482102654799
    -0.005160551303310     0.033771553832745    -0.015286629525085
    -0.014019454501822    -0.013990272289055     0.036142481421385
1 116
    -0.050200972876508     0.000000000000000    -0.000000000000000
    -0.000000000000000    -0.058778762914367     0.054765774083295
     0.000000000000000     0.168788492285809     0.047975478052026
1 117
    -0.013234538906064     0.043314693622852    -0.023119949963508
     0.043314693625525    -0.063250038953646    -0.013348309335494
     0.010148660373952     0.005859331798634     0.067957479335384
1 118
     0.033915646476660    -0.014530242893242    -0.008997558179157
    -0.004910975523045    -0.000333902157566     0.014989031139333
    -0.005106203957646     0.019136339889931     0.036142481421385
1 119
     0.027671727893441    -0.000000000000000     0.000000000000000
     0.000000000000000     0.027671727893441     0.000000000000000
    -0.000000000000000     0.000000000000000     0.023694840662983
1 120
    -0.000189809513651     0.014779818673491     0.008482102654799
     0.005160551303310     0.033771553832745    -0.015286629525085
     0.014019454501822    -0.013990272289055     0.036142481421385
1 121
    -0.004378153208844     0.004323375123174     0.006386972550015
     0.004323375123440     0.000614050373654    -0.003687520321171
     0.003406244956151    -0.001966596442299    -0.000606087856233
1 122
     0.003110152164903     0.000000000000000    -0.000000000000000
     0.000000000000000    -0.006874255000093     0.007375040642343
    -0.000000000000000     0.003933192884598    -0.000606087856233
1 123
     0.033915646476660     0.014530242893242     0.008997558179157
     0.004910975523045    -0.000333902157566     0.014989031139333
     0.005106203957646     0.019136339889931     0.036142481421385
1 124
     0.016646779515632     0.014881160510984     0.017479660833956
     0.024500427882995     0.016934964803462     0.000297598385753
     0.019125658459468    -0.005146067600876     0.036142481421385
1 125
    -0.088257788977437    -0.000000000000000     0.000000000000000
    -0.000000000000000     0.011773211117727     0.026696618670987
     0.000000000000000    -0.011718663597269     0.067957479335384
1 126
    -0.004378153208844    -0.004323375123174    -0.006386972550015
    -0.004323375123440     0.000614050373654    -0.003687520321171
    -0.003406244956151    -0.001966596442299    -0.000606087856233
1 127
    -0.013234538906064    -0.043314693622852     0.023119949963508
    -0.043314693625525    -0.063250038953646    -0.013348309335494
    -0.010148660373952     0.005859331798634     0.067957479335384
1 128
    -0.056634315404902    -0.003714292040443    -0.047428551612590
    -0.003714292040672    -0.052345420385973    -0.027382887041648
    -0.146175122190495    -0.084394246142905     0.047975478052026
2 1
    -1.093638887974635     1.554004612856621     0.000000000000000
     2.384719485501152    -3.367637416724127     0.000000000000000
     0.000000000000000    -0.000000000000000     0.347641880389415
2 2
    27.774189308435179     0.000000000000004    -0.000000000000000
     0.000000000000009    27.774189308435187     0.000000000000002
    -0.000000000000003     0.000000000000001    32.411418448182985
2 3
    -1.093620220709957     2.384708707803707     0.000000000000000
     1.553993835402230    -3.367656083988803     0.000000000000000
     0.000000000000000    -0.000000000000000     0.347641880389415
2 4
     0.078313501496450     0.001168774332078    -0.000000000000000
     0.001168774332150     0.076963917145914     0.000000000000000
    -0.000000000000000     0.000000000000000     0.018479768203827
2 5
    -0.062565820015996    -0.000000000000000    -0.000000000000000
    -0.000000000000000    -0.141345892202136    -0.000000000000000
     0.000000000000000    -0.000000000000000    -0.001359584175881
2 6
    -1.093638887974635    -1.554004612856621     0.000000000000000
    -2.384719485501153    -3.367637416724127     0.000000000000000
     0.000000000000000     0.000000000000000     0.347641880389415
2 7
    -4.504655348363549    -0.415368213798973    -0.000000000000000
     0.415346658724029     0.043379043664788     0.000000000000000
     0.000000000000001     0.000000000000000     0.347641880389415
2 8
    -0.121650874155601     0.034112771911532     0.000000000000000
     0.034112771913637    -0.082260838062531    -0.000000000000000
     0.000000000000000    -0.000000000000000    -0.001359584175881
2 9
    -0.121650874155601    -0.034112771911532    -0.000000000000000
    -0.034112771913637    -0.082260838062531    -0.000000000000000
     0.000000000000000     0.000000000000000    -0.001359584175881
2 10
     0.078313501496450    -0.001168774332078    -0.000000000000000
    -0.001168774332150     0.076963917145914     0.000000000000000
    -0.000000000000000     0.000000000000000     0.018479768203827
2 11
    -0.121655782506568    -0.034117445015317     0.000000000000000
    -0.034117445017422    -0.082260350378043    -0.000000000000000
     0.000000000000000     0.000000000000000    -0.001342328988676
2 12
     0.076289124970646     0.000000000000000     0.000000000000000
     0.000000000000000     0.078988293671718     0.000000000000000
    -0.000000000000000     0.000000000000000     0.018479768203827
2 13
    -4.504655348363549     0.415368213798972     0.000000000000000
    -0.415346658724032     0.043379043664788     0.000000000000000
     0.000000000000001    -0.000000000000000     0.347641880389415
2 14
    -1.093620220709957    -2.384708707803707     0.000000000000000
    -1.553993835402231    -3.367656083988805     0.000000000000000
     0.000000000000000     0.000000000000000     0.347641880389415
2 15
    -0.062562634313780    -0.000000000000000    -0.000000000000000
    -0.000000000000000    -0.141353498570832     0.000000000000000
     0.000000000000000    -0.000000000000000    -0.001342328988676
2 16
    -0.121655782506568     0.034117445015316    -0.000000000000000
     0.034117445017422    -0.082260350378043    -0.000000000000000
     0.000000000000000    -0.000000000000000    -0.001342328988676
2 17
    -0.001221068902681     0.200961339587446     0.092339044512996
     0.464108468293955    -0.385211832779894    -0.420444846624309
     0.317950544868307    -0.290208025502788    -0.604948043896894
2 18
     0.566274410632331     0.000000000000000    -0.000000000000000